
#(C) 2016 by FIZ Karlsruhe - Leibniz Institute for Information Infrastructure, and the U.S. Secretary of
#Commerce on behalf of the United States.  All rights reserved.
data_620518-ICSD
_database_code_ICSD 620518
_audit_creation_date 2010-02-01
_chemical_name_systematic 'Cadmium telluride'
_chemical_formula_structural 'Cd Te'
_chemical_formula_sum 'Cd1 Te1'
_chemical_name_structure_type Wurtzite-ZnS(2H)
_exptl_crystal_density_diffrn 5.88
_publ_section_title 'Phase diagram of the Cd S - Cd Te pseudobinary system'
_publ_section_comment 'Cell and Type only determined'
loop_
_citation_id
_citation_journal_full
_citation_year
_citation_journal_volume
_citation_page_first
_citation_page_last
_citation_journal_id_ASTM
primary 'Japanese Journal of Applied Physics' 1973 12 1198 1204 JJAPA5
loop_
_publ_author_name
'Ohata, K.'
'Saraie, J.'
'Tanaka, T.'
_cell_length_a 4.566
_cell_length_b 4.566
_cell_length_c 7.502
_cell_angle_alpha 90.
_cell_angle_beta 90.
_cell_angle_gamma 120.
_cell_volume 135.45
_cell_formula_units_Z 2
_symmetry_space_group_name_H-M 'P 63 m c'
_symmetry_Int_Tables_number 186
loop_
_symmetry_equiv_pos_site_id
_symmetry_equiv_pos_as_xyz
1 '-x, -x+y, z+1/2'
2 'x-y, -y, z+1/2'
3 'y, x, z+1/2'
4 'x-y, x, z+1/2'
5 'y, -x+y, z+1/2'
6 '-x, -y, z+1/2'
7 'x, x-y, z'
8 '-x+y, y, z'
9 '-y, -x, z'
10 '-x+y, -x, z'
11 '-y, x-y, z'
12 'x, y, z'
loop_
_atom_type_symbol
_atom_type_oxidation_number
Cd2+ 2
Te2- -2
loop_
_atom_site_label
_atom_site_type_symbol
_atom_site_symmetry_multiplicity
_atom_site_Wyckoff_symbol
_atom_site_fract_x
_atom_site_fract_y
_atom_site_fract_z
_atom_site_B_iso_or_equiv
_atom_site_occupancy
_atom_site_attached_hydrogens
Cd1 Cd2+ 2 b 0.3333 0.6667 0 . 1. 0
Te1 Te2- 2 b 0.3333 0.6667 0.375 . 1. 0
#End of TTdata_620518-ICSD